    2    2    1    1
  0.3953964E+02  0.2467291E-09  0.2467291E-09  0.1500000E-08  0.5000000E-15
  1.000000000000000E-004
  CAR 
 unknown system                          
      8    360     52
 
  0.0000000E+00  0.0000000E+00  0.0000000E+00  0.2777778E-02
    1      -21.753970   1.000000
    2       -9.850051   1.000000
    3       -5.290840   1.000000
    4       -5.290829   1.000000
    5        1.010771   0.000000
    6        1.926399   0.000000
    7        2.352337   0.000000
    8        4.341177   0.000000
    9        5.069943   0.000000
   10        6.050584   0.000000
   11        6.050593   0.000000
   12        8.211466   0.000000
   13        9.162210   0.000000
   14        9.323190   0.000000
   15       10.209738   0.000000
   16       13.542505   0.000000
   17       15.056746   0.000000
   18       20.089016   0.000000
   19       20.221179   0.000000
   20       22.204616   0.000000
   21       25.913333   0.000000
   22       25.913339   0.000000
   23       27.103499   0.000000
   24       29.327091   0.000000
   25       29.327095   0.000000
   26       30.687966   0.000000
   27       31.446252   0.000000
   28       32.937664   0.000000
   29       32.937673   0.000000
   30       33.441382   0.000000
   31       33.441382   0.000000
   32       33.934903   0.000000
   33       34.194047   0.000000
   34       34.466131   0.000000
   35       35.128652   0.000000
   36       35.129346   0.000000
   37       35.136580   0.000000
   38       35.136622   0.000000
   39       35.179298   0.000000
   40       35.179466   0.000000
   41       35.293982   0.000000
   42       35.307659   0.000000
   43       35.427526   0.000000
   44       35.427531   0.000000
   45       35.533025   0.000000
   46       36.745711   0.000000
   47       37.351382   0.000000
   48       37.404760   0.000000
   49       37.444158   0.000000
   50       37.547668   0.000000
   51       37.623257   0.000000
   52       37.680671   0.000000
 
  0.1282051E-01  0.0000000E+00  0.0000000E+00  0.2777778E-02
    1      -21.750092   1.000000
    2       -9.845414   1.000000
    3       -5.307046   1.000000
    4       -5.299411   1.000000
    5        1.016040   0.000000
    6        1.931710   0.000000
    7        2.357705   0.000000
    8        4.346459   0.000000
    9        5.075079   0.000000
   10        6.053223   0.000000
   11        6.067628   0.000000
   12        8.216583   0.000000
   13        9.148292   0.000000
   14        9.328528   0.000000
   15       10.216536   0.000000
   16       13.547239   0.000000
   17       15.061987   0.000000
   18       20.091949   0.000000
   19       20.234065   0.000000
   20       22.209680   0.000000
   21       25.868636   0.000000
   22       25.876813   0.000000
   23       27.065393   0.000000
   24       29.340013   0.000000
   25       29.381220   0.000000
   26       30.692735   0.000000
   27       31.535836   0.000000
   28       32.519875   0.000000
   29       32.714321   0.000000
   30       33.376208   0.000000
   31       33.672553   0.000000
   32       33.933954   0.000000
   33       34.109626   0.000000
   34       34.407489   0.000000
   35       34.645906   0.000000
   36       34.709457   0.000000
   37       34.740607   0.000000
   38       34.847526   0.000000
   39       35.067733   0.000000
   40       35.325279   0.000000
   41       35.579411   0.000000
   42       35.716163   0.000000
   43       35.725189   0.000000
   44       36.048066   0.000000
   45       36.063508   0.000000
   46       36.525912   0.000000
   47       36.857680   0.000000
   48       37.053064   0.000000
   49       37.071247   0.000000
   50       37.386510   0.000000
   51       37.590991   0.000000
   52       37.881754   0.000000
 
  0.2564103E-01  0.0000000E+00  0.0000000E+00  0.2777778E-02
    1      -21.738445   1.000000
    2       -9.831505   1.000000
    3       -5.355430   1.000000
    4       -5.324946   1.000000
    5        1.031846   0.000000
    6        1.947650   0.000000
    7        2.373810   0.000000
    8        4.362311   0.000000
    9        5.090487   0.000000
   10        6.060810   0.000000
   11        6.118550   0.000000
   12        8.231957   0.000000
   13        9.107358   0.000000
   14        9.344538   0.000000
   15       10.237081   0.000000
   16       13.561486   0.000000
   17       15.077701   0.000000
   18       20.100738   0.000000
   19       20.272485   0.000000
   20       22.224888   0.000000
   21       25.742357   0.000000
   22       25.756494   0.000000
   23       26.982072   0.000000
   24       29.371539   0.000000
   25       29.535625   0.000000
   26       30.707013   0.000000
   27       31.790781   0.000000
   28       31.833109   0.000000
   29       32.353146   0.000000
   30       33.088491   0.000000
   31       33.345359   0.000000
   32       33.523077   0.000000
   33       34.046874   0.000000
   34       34.227037   0.000000
   35       34.351292   0.000000
   36       34.404893   0.000000
   37       34.460488   0.000000
   38       34.666085   0.000000
   39       35.377101   0.000000
   40       35.444305   0.000000
   41       35.944540   0.000000
   42       36.013740   0.000000
   43       36.124752   0.000000
   44       36.132061   0.000000
   45       36.353495   0.000000
   46       36.486134   0.000000
   47       36.658775   0.000000
   48       36.833471   0.000000
   49       37.010662   0.000000
   50       37.021574   0.000000
   51       37.365607   0.000000
   52       38.060063   0.000000
 
  0.3846154E-01  0.0000000E+00  0.0000000E+00  0.2777778E-02
    1      -21.719046   1.000000
    2       -9.808330   1.000000
    3       -5.435235   1.000000
    4       -5.366910   1.000000
    5        1.058190   0.000000
    6        1.974214   0.000000
    7        2.400652   0.000000
    8        4.388732   0.000000
    9        5.116166   0.000000
   10        6.072436   0.000000
   11        6.202752   0.000000
   12        8.257579   0.000000
   13        9.039344   0.000000
   14        9.371201   0.000000
   15       10.271775   0.000000
   16       13.585214   0.000000
   17       15.103868   0.000000
   18       20.114903   0.000000
   19       20.335746   0.000000
   20       22.250291   0.000000
   21       25.535845   0.000000
   22       25.552860   0.000000
   23       26.912890   0.000000
   24       29.409346   0.000000
   25       29.771409   0.000000
   26       30.730443   0.000000
   27       31.104250   0.000000
   28       31.980293   0.000000
   29       32.174654   0.000000
   30       32.642985   0.000000
   31       32.647353   0.000000
   32       32.840695   0.000000
   33       33.815622   0.000000
   34       33.927406   0.000000
   35       34.058210   0.000000
   36       34.077219   0.000000
   37       34.494995   0.000000
   38       34.804055   0.000000
   39       35.036513   0.000000
   40       35.604940   0.000000
   41       35.928130   0.000000
   42       35.999506   0.000000
   43       36.265715   0.000000
   44       36.432446   0.000000
   45       36.433677   0.000000
   46       36.468855   0.000000
   47       36.592697   0.000000
   48       36.765598   0.000000
   49       37.062481   0.000000
   50       37.681015   0.000000
   51       37.818366   0.000000
   52       38.256208   0.000000
 
  0.5128205E-01  0.0000000E+00  0.0000000E+00  0.2777778E-02
    1      -21.691884   1.000000
    2       -9.775903   1.000000
    3       -5.545254   1.000000
    4       -5.424448   1.000000
    5        1.095075   0.000000
    6        2.011396   0.000000
    7        2.438231   0.000000
    8        4.425708   0.000000
    9        5.152106   0.000000
   10        6.086872   0.000000
   11        6.319395   0.000000
   12        8.293405   0.000000
   13        8.945275   0.000000
   14        9.408488   0.000000
   15       10.321236   0.000000
   16       13.618303   0.000000
   17       15.140454   0.000000
   18       20.133449   0.000000
   19       20.422715   0.000000
   20       22.285983   0.000000
   21       25.221908   0.000000
   22       25.319968   0.000000
   23       26.890698   0.000000
   24       29.445533   0.000000
   25       30.067659   0.000000
   26       30.364619   0.000000
   27       30.765300   0.000000
   28       31.611142   0.000000
   29       31.895041   0.000000
   30       31.907567   0.000000
   31       32.444291   0.000000
   32       32.669245   0.000000
   33       33.425735   0.000000
   34       33.550408   0.000000
   35       33.691551   0.000000
   36       33.704781   0.000000
   37       34.337959   0.000000
   38       34.388644   0.000000
   39       34.917383   0.000000
   40       35.736317   0.000000
   41       35.739029   0.000000
   42       35.900500   0.000000
   43       36.160078   0.000000
   44       36.186849   0.000000
   45       36.668663   0.000000
   46       36.920607   0.000000
   47       36.971071   0.000000
   48       37.091332   0.000000
   49       37.276510   0.000000
   50       38.053358   0.000000
   51       38.337120   0.000000
   52       38.603201   0.000000
 
  0.6410256E-01  0.0000000E+00  0.0000000E+00  0.2777778E-02
    1      -21.656970   1.000000
    2       -9.734243   1.000000
    3       -5.683912   1.000000
    4       -5.496442   1.000000
    5        1.142500   0.000000
    6        2.059194   0.000000
    7        2.486550   0.000000
    8        4.473237   0.000000
    9        5.198282   0.000000
   10        6.102462   0.000000
   11        6.467263   0.000000
   12        8.339399   0.000000
   13        8.825755   0.000000
   14        9.456354   0.000000
   15       10.386147   0.000000
   16       13.660699   0.000000
   17       15.187415   0.000000
   18       20.155104   0.000000
   19       20.531733   0.000000
   20       22.332104   0.000000
   21       24.844407   0.000000
   22       25.059772   0.000000
   23       26.913613   0.000000
   24       29.474805   0.000000
   25       29.628073   0.000000
   26       30.406016   0.000000
   27       30.807663   0.000000
   28       31.132177   0.000000
   29       31.160721   0.000000
   30       31.249335   0.000000
   31       32.090795   0.000000
   32       33.014683   0.000000
   33       33.179570   0.000000
   34       33.220607   0.000000
   35       33.318215   0.000000
   36       33.346441   0.000000
   37       33.665207   0.000000
   38       33.737425   0.000000
   39       35.308603   0.000000
   40       35.420183   0.000000
   41       35.586754   0.000000
   42       35.837573   0.000000
   43       35.925810   0.000000
   44       36.108130   0.000000
   45       36.878026   0.000000
   46       37.387817   0.000000
   47       37.397271   0.000000
   48       37.540958   0.000000
   49       37.747281   0.000000
   50       37.755281   0.000000
   51       38.077390   0.000000
   52       38.496551   0.000000
 
  0.7692308E-01  0.0000000E+00  0.0000000E+00  0.2777778E-02
    1      -21.614316   1.000000
    2       -9.683376   1.000000
    3       -5.849346   1.000000
    4       -5.581571   1.000000
    5        1.200468   0.000000
    6        2.117599   0.000000
    7        2.545608   0.000000
    8        4.531308   0.000000
    9        5.254640   0.000000
   10        6.117360   0.000000
   11        6.644923   0.000000
   12        8.395389   0.000000
   13        8.681978   0.000000
   14        9.514744   0.000000
   15       10.467210   0.000000
   16       13.712289   0.000000
   17       15.244697   0.000000
   18       20.177842   0.000000
   19       20.660545   0.000000
   20       22.388862   0.000000
   21       24.433911   0.000000
   22       24.783735   0.000000
   23       26.967870   0.000000
   24       28.897065   0.000000
   25       29.483276   0.000000
   26       30.361635   0.000000
   27       30.448327   0.000000
   28       30.769950   0.000000
   29       30.859562   0.000000
   30       30.896305   0.000000
   31       31.744635   0.000000
   32       32.543995   0.000000
   33       32.818583   0.000000
   34       32.855546   0.000000
   35       33.007051   0.000000
   36       33.060671   0.000000
   37       33.163495   0.000000
   38       33.807087   0.000000
   39       35.107530   0.000000
   40       35.141281   0.000000
   41       35.490325   0.000000
   42       35.673526   0.000000
   43       35.850947   0.000000
   44       36.284023   0.000000
   45       36.642151   0.000000
   46       37.323171   0.000000
   47       37.757981   0.000000
   48       37.866106   0.000000
   49       38.010720   0.000000
   50       38.051830   0.000000
   51       38.448381   0.000000
   52       38.494971   0.000000
 
  0.8974359E-01  0.0000000E+00  0.0000000E+00  0.2777778E-02
    1      -21.563928   1.000000
    2       -9.623338   1.000000
    3       -6.039495   1.000000
    4       -5.678377   1.000000
    5        1.268979   0.000000
    6        2.186603   0.000000
    7        2.615408   0.000000
    8        4.599905   0.000000
    9        5.321071   0.000000
   10        6.129957   0.000000
   11        6.850788   0.000000
   12        8.458449   0.000000
   13        8.518005   0.000000
   14        9.583593   0.000000
   15       10.564927   0.000000
   16       13.772907   0.000000
   17       15.312244   0.000000
   18       20.198616   0.000000
   19       20.806304   0.000000
   20       22.456544   0.000000
   21       24.013150   0.000000
   22       24.499645   0.000000
   23       27.039229   0.000000
   24       28.174797   0.000000
   25       29.372905   0.000000
   26       29.600284   0.000000
   27       29.862147   0.000000
   28       30.552584   0.000000
   29       30.919111   0.000000
   30       31.138069   0.000000
   31       31.400869   0.000000
   32       31.956035   0.000000
   33       32.190211   0.000000
   34       32.467994   0.000000
   35       32.673142   0.000000
   36       32.699104   0.000000
   37       32.738260   0.000000
   38       34.361520   0.000000
   39       34.805387   0.000000
   40       34.848552   0.000000
   41       35.153889   0.000000
   42       35.365433   0.000000
   43       36.051145   0.000000
   44       36.084973   0.000000
   45       36.301631   0.000000
   46       37.322654   0.000000
   47       38.045195   0.000000
   48       38.316365   0.000000
   49       38.395205   0.000000
   50       38.480351   0.000000
   51       38.533277   0.000000
   52       38.850768   0.000000
 
  0.1025641E+00  0.0000000E+00  0.0000000E+00  0.2777778E-02
    1      -21.505847   1.000000
    2       -9.554168   1.000000
    3       -6.252193   1.000000
    4       -5.785327   1.000000
    5        1.348029   0.000000
    6        2.266194   0.000000
    7        2.695947   0.000000
    8        4.679007   0.000000
    9        5.397372   0.000000
   10        6.138830   0.000000
   11        7.083178   0.000000
   12        8.323089   0.000000
   13        8.540505   0.000000
   14        9.662832   0.000000
   15       10.679536   0.000000
   16       13.842380   0.000000
   17       15.389992   0.000000
   18       20.213029   0.000000
   19       20.965255   0.000000
   20       22.535520   0.000000
   21       23.598713   0.000000
   22       24.212751   0.000000
   23       27.111309   0.000000
   24       27.463566   0.000000
   25       28.849400   0.000000
   26       28.864678   0.000000
   27       29.686680   0.000000
   28       30.218494   0.000000
   29       30.958602   0.000000
   30       31.066811   0.000000
   31       31.306058   0.000000
   32       31.458066   0.000000
   33       31.521604   0.000000
   34       32.127972   0.000000
   35       32.332414   0.000000
   36       32.409720   0.000000
   37       32.467184   0.000000
   38       34.384935   0.000000
   39       34.471888   0.000000
   40       34.832439   0.000000
   41       35.036575   0.000000
   42       35.103166   0.000000
   43       35.496059   0.000000
   44       35.502875   0.000000
   45       36.766426   0.000000
   46       37.620388   0.000000
   47       38.135479   0.000000
   48       38.378642   0.000000
   49       38.530042   0.000000
   50       38.823746   0.000000
   51       38.922059   0.000000
   52       39.040213   0.000000
 
  0.1153846E+00  0.0000000E+00  0.0000000E+00  0.2777778E-02
    1      -21.440040   1.000000
    2       -9.475902   1.000000
    3       -6.485231   1.000000
    4       -5.900868   1.000000
    5        1.437618   0.000000
    6        2.356357   0.000000
    7        2.787227   0.000000
    8        4.768590   0.000000
    9        5.483163   0.000000
   10        6.143318   0.000000
   11        7.340382   0.000000
   12        8.113552   0.000000
   13        8.626678   0.000000
   14        9.752398   0.000000
   15       10.810986   0.000000
   16       13.920507   0.000000
   17       15.477879   0.000000
   18       20.214671   0.000000
   19       21.132813   0.000000
   20       22.626226   0.000000
   21       23.204410   0.000000
   22       23.926620   0.000000
   23       26.765783   0.000000
   24       27.150718   0.000000
   25       28.109848   0.000000
   26       28.236869   0.000000
   27       29.662439   0.000000
   28       29.894312   0.000000
   29       30.561555   0.000000
   30       30.647870   0.000000
   31       30.941298   0.000000
   32       31.102563   0.000000
   33       31.575853   0.000000
   34       31.798602   0.000000
   35       32.007248   0.000000
   36       32.136157   0.000000
   37       32.456029   0.000000
   38       34.075852   0.000000
   39       34.146913   0.000000
   40       34.532156   0.000000
   41       34.636217   0.000000
   42       34.851906   0.000000
   43       34.950396   0.000000
   44       35.727146   0.000000
   45       37.237586   0.000000
   46       37.970523   0.000000
   47       37.971313   0.000000
   48       38.175840   0.000000
   49       38.618737   0.000000
   50       38.649352   0.000000
   51       38.917507   0.000000
   52       39.516538   0.000000
 
  0.1282051E+00  0.0000000E+00  0.0000000E+00  0.2777778E-02
    1      -21.366552   1.000000
    2       -9.388600   1.000000
    3       -6.736435   1.000000
    4       -6.023472   1.000000
    5        1.537739   0.000000
    6        2.457074   0.000000
    7        2.889246   0.000000
    8        4.868610   0.000000
    9        5.577662   0.000000
   10        6.143292   0.000000
   11        7.620645   0.000000
   12        7.884238   0.000000
   13        8.723391   0.000000
   14        9.852237   0.000000
   15       10.958700   0.000000
   16       14.007009   0.000000
   17       15.575836   0.000000
   18       20.194293   0.000000
   19       21.302657   0.000000
   20       22.729039   0.000000
   21       22.843710   0.000000
   22       23.643717   0.000000
   23       26.084512   0.000000
   24       27.033692   0.000000
   25       27.382467   0.000000
   26       27.740284   0.000000
   27       29.580130   0.000000
   28       29.630005   0.000000
   29       29.944589   0.000000
   30       30.022934   0.000000
   31       30.568199   0.000000
   32       31.177183   0.000000
   33       31.426416   0.000000
   34       31.479916   0.000000
   35       31.695194   0.000000
   36       31.902918   0.000000
   37       32.712457   0.000000
   38       33.680527   0.000000
   39       33.831559   0.000000
   40       34.064784   0.000000
   41       34.268591   0.000000
   42       34.356454   0.000000
   43       34.558115   0.000000
   44       36.235936   0.000000
   45       37.708954   0.000000
   46       37.845615   0.000000
   47       37.864817   0.000000
   48       38.263326   0.000000
   49       38.347550   0.000000
   50       38.650221   0.000000
   51       38.676139   0.000000
   52       39.762052   0.000000
 
  0.1410256E+00  0.0000000E+00  0.0000000E+00  0.2777778E-02
    1      -21.285422   1.000000
    2       -9.292321   1.000000
    3       -7.003701   1.000000
    4       -6.151671   1.000000
    5        1.648388   0.000000
    6        2.568317   0.000000
    7        3.002001   0.000000
    8        4.979008   0.000000
    9        5.679124   0.000000
   10        6.140097   0.000000
   11        7.637047   0.000000
   12        7.922214   0.000000
   13        8.830242   0.000000
   14        9.962309   0.000000
   15       11.121816   0.000000
   16       14.101546   0.000000
   17       15.683795   0.000000
   18       20.139858   0.000000
   19       21.466189   0.000000
   20       22.530819   0.000000
   21       22.843895   0.000000
   22       23.365782   0.000000
   23       25.424672   0.000000
   24       26.573891   0.000000
   25       26.668484   0.000000
   26       27.554450   0.000000
   27       29.276001   0.000000
   28       29.278291   0.000000
   29       29.334641   0.000000
   30       29.690693   0.000000
   31       30.251528   0.000000
   32       31.171930   0.000000
   33       31.178236   0.000000
   34       31.259574   0.000000
   35       31.409029   0.000000
   36       31.704787   0.000000
   37       33.014041   0.000000
   38       33.177169   0.000000
   39       33.420612   0.000000
   40       33.526170   0.000000
   41       33.995995   0.000000
   42       34.093263   0.000000
   43       34.245839   0.000000
   44       36.572603   0.000000
   45       37.555917   0.000000
   46       37.795896   0.000000
   47       38.058345   0.000000
   48       38.187953   0.000000
   49       38.341190   0.000000
   50       38.403515   0.000000
   51       38.539780   0.000000
   52       39.691870   0.000000
 
  0.1538462E+00  0.0000000E+00  0.0000000E+00  0.2777778E-02
    1      -21.196620   1.000000
    2       -9.187133   1.000000
    3       -7.285024   1.000000
    4       -6.284075   1.000000
    5        1.769554   0.000000
    6        2.690054   0.000000
    7        3.125489   0.000000
    8        5.099678   0.000000
    9        5.783001   0.000000
   10        6.138289   0.000000
   11        7.373545   0.000000
   12        8.243501   0.000000
   13        8.947114   0.000000
   14       10.082583   0.000000
   15       11.299001   0.000000
   16       14.203704   0.000000
   17       15.801684   0.000000
   18       20.038559   0.000000
   19       21.610561   0.000000
   20       22.279023   0.000000
   21       22.969128   0.000000
   22       23.094077   0.000000
   23       24.795309   0.000000
   24       25.960152   0.000000
   25       25.970108   0.000000
   26       27.444521   0.000000
   27       28.609572   0.000000
   28       28.836451   0.000000
   29       28.982128   0.000000
   30       29.632278   0.000000
   31       29.957838   0.000000
   32       30.874678   0.000000
   33       30.908724   0.000000
   34       31.081687   0.000000
   35       31.404353   0.000000
   36       31.536963   0.000000
   37       32.611861   0.000000
   38       32.767499   0.000000
   39       33.140946   0.000000
   40       33.231026   0.000000
   41       33.743423   0.000000
   42       33.957504   0.000000
   43       34.145904   0.000000
   44       36.650812   0.000000
   45       37.262065   0.000000
   46       37.658736   0.000000
   47       37.780409   0.000000
   48       38.007587   0.000000
   49       38.177931   0.000000
   50       38.528904   0.000000
   51       38.657416   0.000000
   52       39.811654   0.000000
 
  0.1666667E+00  0.0000000E+00  0.0000000E+00  0.2777778E-02
    1      -21.100207   1.000000
    2       -9.073125   1.000000
    3       -7.578524   1.000000
    4       -6.419390   1.000000
    5        1.901228   0.000000
    6        2.822236   0.000000
    7        3.259705   0.000000
    8        5.230426   0.000000
    9        5.876121   0.000000
   10        6.151263   0.000000
   11        7.095409   0.000000
   12        8.582888   0.000000
   13        9.073918   0.000000
   14       10.213043   0.000000
   15       11.488606   0.000000
   16       14.312921   0.000000
   17       15.929424   0.000000
   18       19.882021   0.000000
   19       21.714422   0.000000
   20       22.095285   0.000000
   21       22.829519   0.000000
   22       23.097379   0.000000
   23       24.216000   0.000000
   24       25.292291   0.000000
   25       25.324474   0.000000
   26       27.200768   0.000000
   27       27.950063   0.000000
   28       28.473857   0.000000
   29       28.698364   0.000000
   30       29.582945   0.000000
   31       29.678187   0.000000
   32       30.588140   0.000000
   33       30.637877   0.000000
   34       30.801857   0.000000
   35       31.391329   0.000000
   36       31.520154   0.000000
   37       32.039214   0.000000
   38       32.121127   0.000000
   39       32.946058   0.000000
   40       33.030156   0.000000
   41       33.558399   0.000000
   42       33.683030   0.000000
   43       34.465644   0.000000
   44       36.544200   0.000000
   45       36.977393   0.000000
   46       37.284606   0.000000
   47       37.492404   0.000000
   48       37.518305   0.000000
   49       37.934545   0.000000
   50       38.765945   0.000000
   51       39.113756   0.000000
   52       40.022485   0.000000
 
  0.1794872E+00  0.0000000E+00  0.0000000E+00  0.2777778E-02
    1      -20.996206   1.000000
    2       -8.950391   1.000000
    3       -7.882467   1.000000
    4       -6.556425   1.000000
    5        2.043395   0.000000
    6        2.964795   0.000000
    7        3.404644   0.000000
    8        5.370814   0.000000
    9        5.930343   0.000000
   10        6.207685   0.000000
   11        6.804374   0.000000
   12        8.938737   0.000000
   13        9.210569   0.000000
   14       10.353672   0.000000
   15       11.688546   0.000000
   16       14.428492   0.000000
   17       16.066928   0.000000
   18       19.671938   0.000000
   19       21.739271   0.000000
   20       21.973926   0.000000
   21       22.572803   0.000000
   22       23.193754   0.000000
   23       23.740362   0.000000
   24       24.649361   0.000000
   25       24.697712   0.000000
   26       26.778974   0.000000
   27       27.305453   0.000000
   28       28.267188   0.000000
   29       28.424810   0.000000
   30       29.409395   0.000000
   31       29.531807   0.000000
   32       30.312332   0.000000
   33       30.372120   0.000000
   34       30.525016   0.000000
   35       31.251168   0.000000
   36       31.476748   0.000000
   37       31.497011   0.000000
   38       31.661008   0.000000
   39       32.671367   0.000000
   40       32.822801   0.000000
   41       33.420270   0.000000
   42       33.424456   0.000000
   43       34.897499   0.000000
   44       36.312168   0.000000
   45       36.702318   0.000000
   46       36.875838   0.000000
   47       36.918290   0.000000
   48       37.279432   0.000000
   49       37.687379   0.000000
   50       39.030473   0.000000
   51       39.543652   0.000000
   52       40.259861   0.000000
 
  0.1923077E+00  0.0000000E+00  0.0000000E+00  0.2777778E-02
    1      -20.884650   1.000000
    2       -8.819036   1.000000
    3       -8.195242   1.000000
    4       -6.694093   1.000000
    5        2.196042   0.000000
    6        3.117625   0.000000
    7        3.560294   0.000000
    8        5.519585   0.000000
    9        5.935477   0.000000
   10        6.318476   0.000000
   11        6.503310   0.000000
   12        9.309574   0.000000
   13        9.356973   0.000000
   14       10.504461   0.000000
   15       11.896784   0.000000
   16       14.549488   0.000000
   17       16.214098   0.000000
   18       19.419447   0.000000
   19       21.624039   0.000000
   20       21.895249   0.000000
   21       22.324457   0.000000
   22       23.101413   0.000000
   23       23.517663   0.000000
   24       24.094688   0.000000
   25       24.102559   0.000000
   26       26.258041   0.000000
   27       26.681727   0.000000
   28       28.119447   0.000000
   29       28.161460   0.000000
   30       29.149217   0.000000
   31       29.475319   0.000000
   32       30.047252   0.000000
   33       30.114055   0.000000
   34       30.247570   0.000000
   35       30.872204   0.000000
   36       30.957370   0.000000
   37       31.162765   0.000000
   38       31.795545   0.000000
   39       32.406957   0.000000
   40       32.591075   0.000000
   41       33.169251   0.000000
   42       33.332940   0.000000
   43       35.348716   0.000000
   44       35.930885   0.000000
   45       36.324206   0.000000
   46       36.436804   0.000000
   47       36.583431   0.000000
   48       37.081421   0.000000
   49       37.443708   0.000000
   50       39.235169   0.000000
   51       39.923149   0.000000
   52       40.374670   0.000000
 
  0.2051282E+00  0.0000000E+00  0.0000000E+00  0.2777778E-02
    1      -20.765584   1.000000
    2       -8.679188   1.000000
    3       -8.515373   1.000000
    4       -6.831406   1.000000
    5        2.359150   0.000000
    6        3.280547   0.000000
    7        3.726645   0.000000
    8        5.670881   0.000000
    9        5.913112   0.000000
   10        6.199556   0.000000
   11        6.462828   0.000000
   12        9.513010   0.000000
   13        9.693864   0.000000
   14       10.665394   0.000000
   15       12.110790   0.000000
   16       14.674629   0.000000
   17       16.370814   0.000000
   18       19.139136   0.000000
   19       21.327451   0.000000
   20       21.826031   0.000000
   21       22.084889   0.000000
   22       22.799152   0.000000
   23       23.356216   0.000000
   24       23.534027   0.000000
   25       23.893255   0.000000
   26       25.707006   0.000000
   27       26.089050   0.000000
   28       27.908340   0.000000
   29       27.952130   0.000000
   30       28.894424   0.000000
   31       29.387779   0.000000
   32       29.792906   0.000000
   33       29.864918   0.000000
   34       29.941519   0.000000
   35       30.318832   0.000000
   36       30.559969   0.000000
   37       31.022769   0.000000
   38       31.942431   0.000000