    2    2    1    1
  0.2044415E+02  0.3866975E-09  0.3866975E-09  0.3866975E-09  0.5000000E-15
  1.000000000000000E-004
  CAR 
 unknown system                          
      8    164     16
 
  0.0000000E+00  0.0000000E+00  0.0000000E+00  0.6097561E-02
    1       -6.197708   1.000000
    2        5.617467   1.000000
    3        5.617467   1.000000
    4        5.617467   1.000000
    5        8.173857   0.000000
    6        8.173857   0.000000
    7        8.173857   0.000000
    8        8.751470   0.000000
    9       13.325945   0.000000
   10       13.325945   0.000000
   11       13.495331   0.000000
   12       16.799224   0.000000
   13       16.799224   0.000000
   14       16.799224   0.000000
   15       20.891785   0.000000
   16       28.472464   0.000000
 
  0.2173913E-01 -0.6820319E-33  0.2173913E-01  0.6097561E-02
    1       -6.189583   1.000000
    2        5.558775   1.000000
    3        5.582847   1.000000
    4        5.582847   1.000000
    5        8.153638   0.000000
    6        8.218505   0.000000
    7        8.218505   0.000000
    8        8.808993   0.000000
    9       13.259234   0.000000
   10       13.334970   0.000000
   11       13.531690   0.000000
   12       16.813440   0.000000
   13       16.813440   0.000000
   14       16.846026   0.000000
   15       20.951199   0.000000
   16       28.400473   0.000000
 
  0.4347826E-01 -0.1364064E-32  0.4347826E-01  0.6097561E-02
    1       -6.165202   1.000000
    2        5.394733   1.000000
    3        5.485810   1.000000
    4        5.485810   1.000000
    5        8.094863   0.000000
    6        8.345587   0.000000
    7        8.345587   0.000000
    8        8.967879   0.000000
    9       13.075632   0.000000
   10       13.362044   0.000000
   11       13.638894   0.000000
   12       16.856062   0.000000
   13       16.856062   0.000000
   14       16.973205   0.000000
   15       21.127567   0.000000
   16       27.989498   0.000000
 
  0.6521739E-01 -0.1170700E-32  0.6521739E-01  0.6097561E-02
    1       -6.124589   1.000000
    2        5.151920   1.000000
    3        5.342178   1.000000
    4        5.342178   1.000000
    5        8.002492   0.000000
    6        8.539181   0.000000
    7        8.539181   0.000000
    8        9.195839   0.000000
    9       12.814444   0.000000
   10       13.407162   0.000000
   11       13.811797   0.000000
   12       16.926990   0.000000
   13       16.926990   0.000000
   14       17.152368   0.000000
   15       21.414978   0.000000
   16       27.517747   0.000000
 
  0.8695652E-01 -0.2728128E-32  0.8695652E-01  0.6097561E-02
    1       -6.067797   1.000000
    2        4.856330   1.000000
    3        5.168662   1.000000
    4        5.168662   1.000000
    5        7.883379   0.000000
    6        8.782380   0.000000
    7        8.782380   0.000000
    8        9.454346   0.000000
    9       12.522445   0.000000
   10       13.470318   0.000000
   11       14.043231   0.000000
   12       17.026018   0.000000
   13       17.026018   0.000000
   14       17.358215   0.000000
   15       21.803232   0.000000
   16       26.982088   0.000000
 
  0.1086957E+00 -0.3888733E-32  0.1086957E+00  0.6097561E-02
    1       -5.994875   1.000000
    2        4.526938   1.000000
    3        4.978557   1.000000
    4        4.978557   1.000000
    5        7.744931   0.000000
    6        9.061679   0.000000
    7        9.061679   0.000000
    8        9.698860   0.000000
    9       12.251617   0.000000
   10       13.551500   0.000000
   11       14.325333   0.000000
   12       17.152782   0.000000
   13       17.152782   0.000000
   14       17.576192   0.000000
   15       22.278512   0.000000
   16       26.416014   0.000000
 
  0.1304348E+00 -0.2341399E-32  0.1304348E+00  0.6097561E-02
    1       -5.905903   1.000000
    2        4.176087   1.000000
    3        4.781223   1.000000
    4        4.781223   1.000000
    5        7.594158   0.000000
    6        9.367433   0.000000
    7        9.367433   0.000000
    8        9.869735   0.000000
    9       12.067507   0.000000
   10       13.650695   0.000000
   11       14.650450   0.000000
   12       17.306665   0.000000
   13       17.306665   0.000000
   14       17.801087   0.000000
   15       22.824908   0.000000
   16       25.837342   0.000000
 
  0.1521739E+00 -0.5042748E-32  0.1521739E+00  0.6097561E-02
    1       -5.800984   1.000000
    2        3.811522   1.000000
    3        4.583003   1.000000
    4        4.583003   1.000000
    5        7.437146   0.000000
    6        9.692995   0.000000
    7        9.692995   0.000000
    8        9.899786   0.000000
    9       12.041740   0.000000
   10       13.767888   0.000000
   11       15.011567   0.000000
   12       17.486626   0.000000
   13       17.486626   0.000000
   14       18.033159   0.000000
   15       23.425872   0.000000
   16       25.257185   0.000000
 
  0.1739130E+00 -0.5456255E-32  0.1739130E+00  0.6097561E-02
    1       -5.680228   1.000000
    2        3.438136   1.000000
    3        4.388186   1.000000
    4        4.388186   1.000000
    5        7.278976   0.000000
    6        9.769372   0.000000
    7       10.033782   0.000000
    8       10.033782   0.000000
    9       12.197107   0.000000
   10       13.903057   0.000000
   11       15.402367   0.000000
   12       17.690961   0.000000
   13       17.690961   0.000000
   14       18.275089   0.000000
   15       24.064905   0.000000
   16       24.683430   0.000000
 
  0.1956522E+00 -0.4282471E-32  0.1956522E+00  0.6097561E-02
    1       -5.543785   1.000000
    2        3.059063   1.000000
    3        4.199718   1.000000
    4        4.199718   1.000000
    5        7.123753   0.000000
    6        9.526817   0.000000
    7       10.386537   0.000000
    8       10.386537   0.000000
    9       12.487347   0.000000
   10       14.056177   0.000000
   11       15.816987   0.000000
   12       17.916806   0.000000
   13       17.916806   0.000000
   14       18.530224   0.000000
   15       24.123059   0.000000
   16       24.124731   0.000000
 
  0.2173913E+00 -0.7777466E-32  0.2173913E+00  0.6097561E-02
    1       -5.391807   1.000000
    2        2.676434   1.000000
    3        4.019706   1.000000
    4        4.019706   1.000000
    5        6.974781   0.000000
    6        9.229268   0.000000
    7       10.748920   0.000000
    8       10.748920   0.000000
    9       12.856583   0.000000
   10       14.227223   0.000000
   11       16.249714   0.000000
   12       18.159358   0.000000
   13       18.159358   0.000000
   14       18.801806   0.000000
   15       23.583550   0.000000
   16       23.583855   0.000000
 
  0.2391304E+00 -0.8938071E-32  0.2391304E+00  0.6097561E-02
    1       -5.224479   1.000000
    2        2.291773   1.000000
    3        3.849648   1.000000
    4        3.849648   1.000000
    5        6.834705   0.000000
    6        8.912321   0.000000
    7       11.119214   0.000000
    8       11.119214   0.000000
    9       13.269684   0.000000
   10       14.416162   0.000000
   11       16.694461   0.000000
   12       18.410275   0.000000
   13       18.410275   0.000000
   14       19.092705   0.000000
   15       23.075066   0.000000
   16       23.075126   0.000000
 
  0.2608696E+00 -0.4682799E-32  0.2608696E+00  0.6097561E-02
    1       -5.042019   1.000000
    2        1.906247   1.000000
    3        3.690671   1.000000
    4        3.690671   1.000000
    5        6.705663   0.000000
    6        8.595060   0.000000
    7       11.496150   0.000000
    8       11.496150   0.000000
    9       13.707465   0.000000
   10       14.622958   0.000000
   11       17.144180   0.000000
   12       18.654698   0.000000
   13       18.654698   0.000000
   14       19.405341   0.000000
   15       22.613634   0.000000
   16       22.613767   0.000000
 
  0.2826087E+00 -0.5096306E-32  0.2826087E+00  0.6097561E-02
    1       -4.844661   1.000000
    2        1.520850   1.000000
    3        3.543626   1.000000
    4        3.543626   1.000000
    5        6.589398   0.000000
    6        8.287832   0.000000
    7       11.878792   0.000000
    8       11.878792   0.000000
    9       14.158944   0.000000
   10       14.847570   0.000000
   11       17.590020   0.000000
   12       18.866090   0.000000
   13       18.866090   0.000000
   14       19.741704   0.000000
   15       22.226474   0.000000
   16       22.226581   0.000000
 
  0.3043478E+00 -0.1008550E-31  0.3043478E+00  0.6097561E-02
    1       -4.632673   1.000000
    2        1.136492   1.000000
    3        3.409170   1.000000
    4        3.409170   1.000000
    5        6.487357   0.000000
    6        7.996523   0.000000
    7       12.266446   0.000000
    8       12.266446   0.000000
    9       14.617164   0.000000
   10       15.089953   0.000000
   11       18.020183   0.000000
   12       19.000818   0.000000
   13       19.000818   0.000000
   14       20.103345   0.000000
   15       21.957522   0.000000
   16       21.957659   0.000000
 
  0.3260870E+00 -0.1049900E-31  0.3260870E+00  0.6097561E-02
    1       -4.406358   1.000000
    2        0.754045   1.000000
    3        3.287816   1.000000
    4        3.287816   1.000000
    5        6.400757   0.000000
    6        7.724600   0.000000
    7       12.658577   0.000000
    8       12.658577   0.000000
    9       15.077225   0.000000
   10       15.350053   0.000000
   11       18.418573   0.000000
   12       19.006198   0.000000
   13       19.006198   0.000000
   14       20.491338   0.000000
   15       21.850611   0.000000
   16       21.859470   0.000000
 
  0.3478261E+00 -0.1091251E-31  0.3478261E+00  0.6097561E-02
    1       -4.166040   1.000000
    2        0.374404   1.000000
    3        3.179973   1.000000
    4        3.179973   1.000000
    5        6.330641   0.000000
    6        7.474135   0.000000
    7       13.054712   0.000000
    8       13.054713   0.000000
    9       15.535359   0.000000
   10       15.627817   0.000000
   11       18.763720   0.000000
   12       18.857965   0.000000
   13       18.857965   0.000000
   14       20.906222   0.000000
   15       21.311891   0.000000
   16       21.956391   0.000000
 
  0.3695652E+00 -0.6657238E-32  0.3695652E+00  0.6097561E-02
    1       -3.912114   1.000000
    2       -0.001522   1.000000
    3        3.085957   1.000000
    4        3.085957   1.000000
    5        6.277933   0.000000
    6        7.246311   0.000000
    7       13.454319   0.000000
    8       13.454319   0.000000
    9       15.923170   0.000000
   10       15.988385   0.000000
   11       18.584036   0.000000
   12       18.584036   0.000000
   13       19.029550   0.000000
   14       20.799996   0.000000
   15       21.347797   0.000000
   16       22.220060   0.000000
 
  0.3913043E+00 -0.8564942E-32  0.3913043E+00  0.6097561E-02
    1       -3.644986   1.000000
    2       -0.372837   1.000000
    3        3.006025   1.000000
    4        3.006025   1.000000
    5        6.243447   0.000000
    6        7.041757   0.000000
    7       13.856539   0.000000
    8       13.856539   0.000000
    9       16.236044   0.000000
   10       16.433464   0.000000
   11       18.232765   0.000000
   12       18.232765   0.000000
   13       19.190658   0.000000
   14       20.303321   0.000000
   15       21.815009   0.000000
   16       22.601922   0.000000
 
  0.4130435E+00 -0.8978449E-32  0.4130435E+00  0.6097561E-02
    1       -3.365114   1.000000
    2       -0.738634   1.000000
    3        2.940378   1.000000
    4        2.940378   1.000000
    5        6.227929   0.000000
    6        6.860712   0.000000
    7       14.259706   0.000000
    8       14.259706   0.000000
    9       16.566354   0.000000
   10       16.867783   0.000000
   11       17.842204   0.000000
   12       17.842204   0.000000
   13       19.232026   0.000000
   14       19.822255   0.000000
   15       22.305268   0.000000
   16       23.064199   0.000000
 
  0.4347826E+00 -0.1555493E-31  0.4347826E+00  0.6097561E-02
    1       -3.072997   1.000000
    2       -1.098028   1.000000
    3        2.889168   1.000000
    4        2.889168   1.000000
    5        6.232055   0.000000
    6        6.703150   0.000000
    7       14.660045   0.000000
    8       14.660045   0.000000
    9       16.914008   0.000000
   10       17.288247   0.000000
   11       17.437692   0.000000
   12       17.437692   0.000000
   13       19.156321   0.000000
   14       19.357121   0.000000
   15       22.813986   0.000000
   16       23.583335   0.000000
 
  0.4565217E+00 -0.1596844E-31  0.4565217E+00  0.6097561E-02
    1       -2.769205   1.000000
    2       -1.450112   1.000000
    3        2.852512   1.000000
    4        2.852512   1.000000
    5        6.256492   0.000000
    6        6.568861   0.000000
    7       15.047487   0.000000
    8       15.047487   0.000000
    9       17.041201   0.000000
   10       17.041201   0.000000
   11       17.278900   0.000000
   12       17.691017   0.000000
   13       18.908200   0.000000
   14       18.981103   0.000000
   15       23.332093   0.000000
   16       24.143959   0.000000
 
  0.4782609E+00 -0.1787614E-31  0.4782609E+00  0.6097561E-02
    1       -2.454338   1.000000
    2       -1.794058   1.000000
    3        2.830487   1.000000
    4        2.830487   1.000000
    5        6.301835   0.000000
    6        6.457507   0.000000
    7       15.388048   0.000000
    8       15.388048   0.000000
    9       16.693122   0.000000
   10       16.693122   0.000000
   11       17.660910   0.000000
   12       18.070914   0.000000
   13       18.475726   0.000000
   14       18.729053   0.000000
   15       23.841271   0.000000
   16       24.692476   0.000000
 
  0.5000000E+00 -0.1362087E-31  0.5000000E+00  0.6097561E-02
    1       -2.129056   1.000000
    2       -2.129048   1.000000
    3        2.823141   1.000000
    4        2.823141   1.000000
    5        6.368662   0.000000
    6        6.368662   0.000000
    7       15.553899   0.000000
    8       15.553899   0.000000
    9       16.524446   0.000000
   10       16.524446   0.000000
   11       18.059904   0.000000
   12       18.059904   0.000000
   13       18.420526   0.000000
   14       18.420529   0.000000
   15       24.294080   0.000000
   16       24.295714   0.000000
 
  0.5000000E+00 -0.1362087E-31  0.5000000E+00  0.6097561E-02
    1       -2.129056   1.000000
    2       -2.129048   1.000000
    3        2.823141   1.000000
    4        2.823141   1.000000
    5        6.368662   0.000000
    6        6.368662   0.000000
    7       15.553899   0.000000
    8       15.553899   0.000000
    9       16.524446   0.000000
   10       16.524446   0.000000
   11       18.059904   0.000000
   12       18.059904   0.000000
   13       18.420526   0.000000
   14       18.420529   0.000000
   15       24.293990   0.000000
   16       24.296235   0.000000
 
  0.5000000E+00  0.2083333E-01  0.5208333E+00  0.6097561E-02
    1       -2.126644   1.000000
    2       -2.126635   1.000000
    3        2.800921   1.000000
    4        2.800921   1.000000
    5        6.409817   0.000000
    6        6.409817   0.000000
    7       15.486824   0.000000
    8       15.486824   0.000000
    9       16.427196   0.000000
   10       16.427196   0.000000
   11       18.126367   0.000000
   12       18.126368   0.000000
   13       18.525670   0.000000
   14       18.525672   0.000000
   15       24.180153   0.000000
   16       24.180332   0.000000
 
  0.5000000E+00  0.4166667E-01  0.5416667E+00  0.6097561E-02
    1       -2.119532   1.000000
    2       -2.119523   1.000000
    3        2.737801   1.000000
    4        2.737801   1.000000
    5        6.529821   0.000000
    6        6.529821   0.000000
    7       15.262988   0.000000
    8       15.262988   0.000000
    9       16.262333   0.000000
   10       16.262333   0.000000
   11       18.196607   0.000000
   12       18.196608   0.000000
   13       18.865653   0.000000
   14       18.865655   0.000000
   15       23.927219   0.000000
   16       23.927249   0.000000
 
  0.5000000E+00  0.6250000E-01  0.5625000E+00  0.6097561E-02
    1       -2.108097   1.000000
    2       -2.108088   1.000000
    3        2.642871   1.000000
    4        2.642871   1.000000
    5        6.719824   0.000000
    6        6.719824   0.000000
    7       14.884392   0.000000
    8       14.884392   0.000000
    9       16.156512   0.000000
   10       16.156512   0.000000
   11       18.235824   0.000000
   12       18.235825   0.000000
   13       19.345619   0.000000
   14       19.345620   0.000000
   15       23.635543   0.000000
   16       23.635641   0.000000
 
  0.5000000E+00  0.8333333E-01  0.5833333E+00  0.6097561E-02
    1       -2.092964   1.000000
    2       -2.092955   1.000000
    3        2.527518   1.000000
    4        2.527518   1.000000
    5        6.968813   0.000000
    6        6.968813   0.000000
    7       14.412891   0.000000
    8       14.412891   0.000000
    9       16.105574   0.000000
   10       16.105574   0.000000
   11       18.268932   0.000000
   12       18.268933   0.000000
   13       19.880942   0.000000
   14       19.880943   0.000000
   15       23.346571   0.000000
   16       23.346585   0.000000
 
  0.5000000E+00  0.1041667E+00  0.6041667E+00  0.6097561E-02
    1       -2.074996   1.000000
    2       -2.074987   1.000000
    3        2.402764   1.000000
    4        2.402764   1.000000
    5        7.266257   0.000000
    6        7.266257   0.000000
    7       13.899450   0.000000
    8       13.899450   0.000000
    9       16.082049   0.000000
   10       16.082050   0.000000
   11       18.302988   0.000000
   12       18.302989   0.000000
   13       20.437350   0.000000
   14       20.437351   0.000000
   15       23.078783   0.000000
   16       23.078793   0.000000
 
  0.5000000E+00  0.1250000E+00  0.6250000E+00  0.6097561E-02
    1       -2.055285   1.000000
    2       -2.055276   1.000000
    3        2.278009   1.000000
    4        2.278009   1.000000
    5        7.603284   0.000000
    6        7.603284   0.000000
    7       13.369477   0.000000
    8       13.369478   0.000000
    9       16.071490   0.000000
   10       16.071490   0.000000
   11       18.338843   0.000000
   12       18.338844   0.000000
   13       20.994909   0.000000
   14       20.994910   0.000000
   15       22.846429   0.000000
   16       22.846442   0.000000
 
  0.5000000E+00  0.1458333E+00  0.6458333E+00  0.6097561E-02
    1       -2.035101   1.000000
    2       -2.035092   1.000000
    3        2.160841   1.000000
    4        2.160842   1.000000
    5        7.972761   0.000000
    6        7.972761   0.000000
    7       12.835602   0.000000
    8       12.835602   0.000000
    9       16.067363   0.000000
   10       16.067363   0.000000
   11       18.375373   0.000000
   12       18.375375   0.000000
   13       21.524700   0.000000
   14       21.524702   0.000000
   15       22.676064   0.000000
   16       22.676068   0.000000
 
  0.5000000E+00  0.1666667E+00  0.6666667E+00  0.6097561E-02
    1       -2.015843   1.000000
    2       -2.015834   1.000000
    3        2.057258   1.000000
    4        2.057258   1.000000
    5        8.368769   0.000000
    6        8.368770   0.000000
    7       12.305234   0.000000
    8       12.305234   0.000000
    9       16.066468   0.000000
   10       16.066468   0.000000
   11       18.410552   0.000000
   12       18.410553   0.000000
   13       21.925309   0.000000
   14       21.925312   0.000000
   15       22.667503   0.000000
   16       22.667531   0.000000
 
  0.5000000E+00  0.1875000E+00  0.6875000E+00  0.6097561E-02
    1       -1.998946   1.000000
    2       -1.998936   1.000000
    3        1.971932   1.000000
    4        1.971933   1.000000
    5        8.785626   0.000000
    6        8.785627   0.000000
    7       11.784226   0.000000
    8       11.784227   0.000000
    9       16.067051   0.000000
   10       16.067051   0.000000
   11       18.441875   0.000000
   12       18.441876   0.000000
   13       22.025093   0.000000
   14       22.025095   0.000000
   15       22.989272   0.000000
   16       22.989287   0.000000
 
  0.5000000E+00  0.2083333E+00  0.7083333E+00  0.6097561E-02
    1       -1.985737   1.000000
    2       -1.985728   1.000000
    3        1.908438   1.000000
    4        1.908439   1.000000
    5        9.215286   0.000000
    6        9.215287   0.000000
    7       11.280433   0.000000
    8       11.280434   0.000000
    9       16.068083   0.000000
   10       16.068083   0.000000
   11       18.466734   0.000000
   12       18.466735   0.000000
   13       21.982299   0.000000
   14       21.982300   0.000000
   15       23.472472   0.000000
   16       23.473534   0.000000
 
  0.5000000E+00  0.2291667E+00  0.7291667E+00  0.6097561E-02
    1       -1.977326   1.000000
    2       -1.977316   1.000000
    3        1.869313   1.000000
    4        1.869314   1.000000
    5        9.634462   0.000000
    6        9.634463   0.000000
    7       10.816888   0.000000
    8       10.816890   0.000000
    9       16.068930   0.000000
   10       16.068930   0.000000
   11       18.482762   0.000000
   12       18.482763   0.000000
   13       21.936623   0.000000
   14       21.936624   0.000000
   15       23.913748   0.000000
   16       23.928756   0.000000
 
  0.5000000E+00  0.2500000E+00  0.7500000E+00  0.6097561E-02
    1       -1.974441   1.000000
    2       -1.974432   1.000000
    3        1.856094   1.000000
    4        1.856094   1.000000
    5        9.887524   0.000000
    6        9.887526   0.000000
    7       10.549049   0.000000
    8       10.549051   0.000000
    9       16.069244   0.000000
   10       16.069244   0.000000
   11       18.488297   0.000000
   12       18.488298   0.000000
   13       21.919434   0.000000
   14       21.919442   0.000000
   15       24.021518   0.000000
   16       24.024672   0.000000
 
  0.5000000E+00  0.2500000E+00  0.7500000E+00  0.6097561E-02
    1       -1.974441   1.000000
    2       -1.974432   1.000000
    3        1.856094   1.000000
    4        1.856094   1.000000
    5        9.887524   0.000000
    6        9.887526   0.000000
    7       10.549049   0.000000
    8       10.549051   0.000000
    9       16.069244   0.000000
   10       16.069244   0.000000
   11       18.488297   0.000000
   12       18.488298   0.000000
   13       21.919434   0.000000
   14       21.919435   0.000000
   15       24.020903   0.000000
   16       24.033381   0.000000
 
  0.4861111E+00  0.2638889E+00  0.7500000E+00  0.6097561E-02
    1       -2.093450   1.000000
    2       -1.859751   1.000000
    3        1.766604   1.000000
    4        1.968832   1.000000
    5        9.566946   0.000000
    6        9.934555   0.000000
    7       10.686541   0.000000
    8       10.712230   0.000000
    9       15.822446   0.000000
   10       16.259401   0.000000
   11       18.278186   0.000000
   12       18.744183   0.000000
   13       21.696510   0.000000
   14       22.116278   0.000000
   15       23.771239   0.000000
   16       24.007391   0.000000
 
  0.4722222E+00  0.2777778E+00  0.7500000E+00  0.6097561E-02
    1       -2.198688   1.000000
    2       -1.767196   1.000000
    3        1.686378   1.000000
    4        2.116927   1.000000
    5        9.091783   0.000000
    6        9.919760   0.000000
    7       10.957447   0.000000
    8       11.013960   0.000000
    9       15.550980   0.000000
   10       16.322551   0.000000
   11       18.179057   0.000000
   12       19.022010   0.000000
   13       21.492091   0.000000
   14       22.224787   0.000000
   15       23.584788   0.000000
   16       23.618147   0.000000
 
  0.4583333E+00  0.2916667E+00  0.7500000E+00  0.6097561E-02
    1       -2.290064   1.000000
    2       -1.695295   1.000000
    3        1.615931   1.000000
    4        2.294878   1.000000
    5        8.613441   0.000000
    6        9.882633   0.000000
    7       11.244029   0.000000
    8       11.383792   0.000000
    9       15.261320   0.000000
   10       16.211525   0.000000
   11       18.243924   0.000000
   12       19.314078   0.000000
   13       21.313773   0.000000
   14       22.219149   0.000000
   15       23.187661   0.000000
   16       23.431140   0.000000
 
  0.4444444E+00  0.3055556E+00  0.7500000E+00  0.6097561E-02
    1       -2.367502   1.000000
    2       -1.641512   1.000000
    3        1.555684   1.000000
    4        2.494155   1.000000
    5        8.160049   0.000000
    6        9.841357   0.000000
    7       11.552327   0.000000
    8       11.773442   0.000000
    9       14.957715   0.000000
   10       15.951731   0.000000
   11       18.452830   0.000000
   12       19.614860   0.000000
   13       21.162264   0.000000
   14       22.123775   0.000000
   15       22.741394   0.000000
   16       23.243888   0.000000
 
  0.4305556E+00  0.3194444E+00  0.7500000E+00  0.6097561E-02
    1       -2.430940   1.000000
    2       -1.602813   1.000000
    3        1.505970   1.000000
    4        2.702799   1.000000
    5        7.746150   0.000000
    6        9.803316   0.000000
    7       11.873016   0.000000
    8       12.176465   0.000000
    9       14.643678   0.000000
   10       15.602946   0.000000
   11       18.750597   0.000000
   12       19.919499   0.000000
   13       21.034191   0.000000
   14       21.982967   0.000000
   15       22.295711   0.000000
   16       23.025393   0.000000
 
  0.4166667E+00  0.3333333E+00  0.7500000E+00  0.6097561E-02
    1       -2.480330   1.000000
    2       -1.576212   1.000000
    3        1.467048   1.000000
    4        2.904588   1.000000
    5        7.387077   0.000000
    6        9.771817   0.000000
    7       12.199800   0.000000
    8       12.589223   0.000000
    9       14.323152   0.000000
   10       15.208273   0.000000
   11       19.097545   0.000000
   12       20.222398   0.000000
   13       20.920515   0.000000
   14       21.822028   0.000000
   15       21.866805   0.000000
   16       22.809088   0.000000
 
  0.4027778E+00  0.3472222E+00  0.7500000E+00  0.6097561E-02
    1       -2.515635   1.000000
    2       -1.559150   1.000000
    3        1.439112   1.000000
    4        3.078221   1.000000
    5        7.102552   0.000000
    6        9.748504   0.000000
    7       12.525020   0.000000
    8       13.007447   0.000000
    9       14.002791   0.000000
   10       14.793024   0.000000
   11       19.470376   0.000000
   12       20.514775   0.000000
   13       20.795717   0.000000
   14       21.486598   0.000000
   15       21.646996   0.000000
   16       22.626284   0.000000
 
  0.3888889E+00  0.3611111E+00  0.7500000E+00  0.6097561E-02
    1       -2.536828   1.000000
    2       -1.549696   1.000000
    3        1.422299   1.000000
    4        3.198327   1.000000
    5        6.916532   0.000000
    6        9.734235   0.000000
    7       12.828275   0.000000
    8       13.419225   0.000000
    9       13.702557   0.000000
   10       14.379716   0.000000
   11       19.848013   0.000000
   12       20.599012   0.000000
   13       20.775161   0.000000
   14       21.228804   0.000000
   15       21.465226   0.000000
   16       22.504530   0.000000
 
  0.3750000E+00  0.3750000E+00  0.7500000E+00  0.6097561E-02
    1       -2.543897   1.000000
    2       -1.546678   1.000000
    3        1.416683   1.000000
    4        3.241659   1.000000
    5        6.851337   0.000000
    6        9.729434   0.000000
    7       12.997993   0.000000
    8       13.533858   0.000000
    9       13.700428   0.000000
   10       14.097509   0.000000
   11       20.119681   0.000000
   12       20.382985   0.000000
   13       20.911575   0.000000
   14       21.147891   0.000000
   15       21.356367   0.000000
   16       22.462021   0.000000
 
  0.3750000E+00  0.3750000E+00  0.7500000E+00  0.6097561E-02
    1       -2.543897   1.000000
    2       -1.546678   1.000000
    3        1.416683   1.000000
    4        3.241659   1.000000
    5        6.851337   0.000000
    6        9.729434   0.000000
    7       12.997993   0.000000
    8       13.533858   0.000000
    9       13.700428   0.000000
   10       14.097509   0.000000
   11       20.119681   0.000000
   12       20.382985   0.000000
   13       20.911575   0.000000
   14       21.147892   0.000000
   15       21.356368   0.000000
   16       22.462057   0.000000
 
  0.3600000E+00  0.3600000E+00  0.7200000E+00  0.6097561E-02
    1       -2.688402   1.000000
    2       -1.399076   1.000000
    3        1.336923   1.000000
    4        3.343927   1.000000
    5        6.969358   0.000000
    6       10.332393   0.000000
    7       12.638529   0.000000
    8       13.162529   0.000000
    9       13.410287   0.000000
   10       13.785629   0.000000
   11       20.237054   0.000000
   12       20.680285   0.000000
   13       20.913578   0.000000
   14       21.043729   0.000000
   15       21.326617   0.000000
   16       22.945133   0.000000
 
  0.3450000E+00  0.3450000E+00  0.6900000E+00  0.6097561E-02
    1       -2.856331   1.000000
    2       -1.235043   1.000000
    3        1.302815   1.000000
    4        3.455594   1.000000
    5        7.098097   0.000000
    6       10.940601   0.000000
    7       12.288979   0.000000
    8       12.817482   0.000000
    9       13.126979   0.000000
   10       13.488676   0.000000
   11       20.085917   0.000000
   12       20.698673   0.000000
   13       20.950575   0.000000
   14       20.968453   0.000000
   15       21.732149   0.000000
   16       23.450948   0.000000
 
  0.3300000E+00  0.3300000E+00  0.6600000E+00  0.6097561E-02
    1       -3.044107   1.000000
    2       -1.054662   1.000000
    3        1.312488   1.000000
    4        3.575854   1.000000
    5        7.236416   0.000000